 Entering Gaussian System
 #p B3LYP/6-31G(d) Opt Freq Pop=Full

 SCF Done:  E(RB3LYP) =  -76.4089507708     A.U. after    9 cycles
 Alpha  occ. eigenvalues --  -0.74211  -0.52432  -0.42150  -0.30960  -0.22145
 Alpha virt. eigenvalues --   0.03125   0.08143   0.12670

 Dipole moment (field-independent basis, Debye):
    X=     0.0000    Y=    -2.0904    Z=     0.0000  Tot=     2.0904

 Mulliken charges:
              1
     1  O   -0.7748
     2  H    0.3874
     3  H    0.3874
 Sum of Mulliken charges =   0.00000

 Frequencies --   1600.12  3657.31  3755.82
 IR Inten    --     45.10    12.30    88.20
 Zero-point correction=                           0.021391 (Hartree/Particle)
 Thermal correction to Energy=                    0.024117
 Thermal correction to Enthalpy=                  0.025061
 Thermal correction to Gibbs Free Energy=         0.003487

 Standard orientation:
 ---------------------------------------------------------------------
 Center     Atomic      Atomic             Coordinates (Angstroms)
 Number     Number       Type             X           Y           Z
 ---------------------------------------------------------------------
      1          8           0        0.000000    0.000000    0.117790
      2          1           0        0.000000    0.755453   -0.471161
      3          1           0        0.000000   -0.755453   -0.471161
 ---------------------------------------------------------------------

 Normal termination of Gaussian 16
